
The number of threads in each node for OpenMP parallelization is 1.


*******************************************************
*******************************************************
 Welcome to OpenMX   Ver. 3.9.6                           
 Copyright (C), 2002-2021, T. Ozaki                    
 OpenMX comes with ABSOLUTELY NO WARRANTY.             
 This is free software, and you are welcome to         
 redistribute it under the constitution of the GNU-GPL.
*******************************************************
*******************************************************

Species.Number may be wrong.
Species.Number may be wrong.
Species.Number may be wrong.
Species.Number may be wrong.
The recursion method is not supported anymore.
Species.Number may be wrong.
